    1C
    1UUSER                                                              
    1UDATE              25.july.2017                                    
    1UTIME              09:51:26                                        
    1UHOST                                                              
    1UPGM               CalculiX                                        
    1UDIR                                                               
    1UDBN                                                               
    1UMAT    1SOLIDMATERIAL                                             
    2C                          2114                                     1
 -1         1 0.00000E+00 0.00000E+00 1.00000E+01
 -1         2 0.00000E+00 0.00000E+00 0.00000E+00
 -1         3 0.00000E+00 1.00000E+01 1.00000E+01
 -1         4 0.00000E+00 1.00000E+01 0.00000E+00
 -1         5 1.00000E+01 0.00000E+00 1.00000E+01
 -1         6 1.00000E+01 0.00000E+00 0.00000E+00
 -1         7 1.00000E+01 1.00000E+01 1.00000E+01
 -1         8 1.00000E+01 1.00000E+01 0.00000E+00
 -1         9 0.00000E+00 0.00000E+00 1.66667E+00
 -1        10 0.00000E+00 0.00000E+00 3.33333E+00
 -1        11 0.00000E+00 0.00000E+00 5.00000E+00
 -1        12 0.00000E+00 0.00000E+00 6.66667E+00
 -1        13 0.00000E+00 0.00000E+00 8.33333E+00
 -1        14 0.00000E+00 0.00000E+00 8.33333E-01
 -1        15 0.00000E+00 0.00000E+00 2.50000E+00
 -1        16 0.00000E+00 0.00000E+00 4.16667E+00
 -1        17 0.00000E+00 0.00000E+00 5.83333E+00
 -1        18 0.00000E+00 0.00000E+00 7.50000E+00
 -1        19 0.00000E+00 0.00000E+00 9.16667E+00
 -1        20 0.00000E+00 1.66667E+00 1.00000E+01
 -1        21 0.00000E+00 3.33333E+00 1.00000E+01
 -1        22 0.00000E+00 5.00000E+00 1.00000E+01
 -1        23 0.00000E+00 6.66667E+00 1.00000E+01
 -1        24 0.00000E+00 8.33333E+00 1.00000E+01
 -1        25 0.00000E+00 8.33333E-01 1.00000E+01
 -1        26 0.00000E+00 2.50000E+00 1.00000E+01
 -1        27 0.00000E+00 4.16667E+00 1.00000E+01
 -1        28 0.00000E+00 5.83333E+00 1.00000E+01
 -1        29 0.00000E+00 7.50000E+00 1.00000E+01
 -1        30 0.00000E+00 9.16667E+00 1.00000E+01
 -1        31 0.00000E+00 1.00000E+01 1.66667E+00
 -1        32 0.00000E+00 1.00000E+01 3.33333E+00
 -1        33 0.00000E+00 1.00000E+01 5.00000E+00
 -1        34 0.00000E+00 1.00000E+01 6.66667E+00
 -1        35 0.00000E+00 1.00000E+01 8.33333E+00
 -1        36 0.00000E+00 1.00000E+01 8.33333E-01
 -1        37 0.00000E+00 1.00000E+01 2.50000E+00
 -1        38 0.00000E+00 1.00000E+01 4.16667E+00
 -1        39 0.00000E+00 1.00000E+01 5.83333E+00
 -1        40 0.00000E+00 1.00000E+01 7.50000E+00
 -1        41 0.00000E+00 1.00000E+01 9.16667E+00
 -1        42 0.00000E+00 1.66667E+00 0.00000E+00
 -1        43 0.00000E+00 3.33333E+00 0.00000E+00
 -1        44 0.00000E+00 5.00000E+00 0.00000E+00
 -1        45 0.00000E+00 6.66667E+00 0.00000E+00
 -1        46 0.00000E+00 8.33333E+00 0.00000E+00
 -1        47 0.00000E+00 8.33333E-01 0.00000E+00
 -1        48 0.00000E+00 2.50000E+00 0.00000E+00
 -1        49 0.00000E+00 4.16667E+00 0.00000E+00
 -1        50 0.00000E+00 5.83333E+00 0.00000E+00
 -1        51 0.00000E+00 7.50000E+00 0.00000E+00
 -1        52 0.00000E+00 9.16667E+00 0.00000E+00
 -1        53 1.00000E+01 0.00000E+00 1.66667E+00
 -1        54 1.00000E+01 0.00000E+00 3.33333E+00
 -1        55 1.00000E+01 0.00000E+00 5.00000E+00
 -1        56 1.00000E+01 0.00000E+00 6.66667E+00
 -1        57 1.00000E+01 0.00000E+00 8.33333E+00
 -1        58 1.00000E+01 0.00000E+00 8.33333E-01
 -1        59 1.00000E+01 0.00000E+00 2.50000E+00
 -1        60 1.00000E+01 0.00000E+00 4.16667E+00
 -1        61 1.00000E+01 0.00000E+00 5.83333E+00
 -1        62 1.00000E+01 0.00000E+00 7.50000E+00
 -1        63 1.00000E+01 0.00000E+00 9.16667E+00
 -1        64 1.00000E+01 1.66667E+00 1.00000E+01
 -1        65 1.00000E+01 3.33333E+00 1.00000E+01
 -1        66 1.00000E+01 5.00000E+00 1.00000E+01
 -1        67 1.00000E+01 6.66667E+00 1.00000E+01
 -1        68 1.00000E+01 8.33333E+00 1.00000E+01
 -1        69 1.00000E+01 8.33333E-01 1.00000E+01
 -1        70 1.00000E+01 2.50000E+00 1.00000E+01
 -1        71 1.00000E+01 4.16667E+00 1.00000E+01
 -1        72 1.00000E+01 5.83333E+00 1.00000E+01
 -1        73 1.00000E+01 7.50000E+00 1.00000E+01
 -1        74 1.00000E+01 9.16667E+00 1.00000E+01
 -1        75 1.00000E+01 1.00000E+01 1.66667E+00
 -1        76 1.00000E+01 1.00000E+01 3.33333E+00
 -1        77 1.00000E+01 1.00000E+01 5.00000E+00
 -1        78 1.00000E+01 1.00000E+01 6.66667E+00
 -1        79 1.00000E+01 1.00000E+01 8.33333E+00
 -1        80 1.00000E+01 1.00000E+01 8.33333E-01
 -1        81 1.00000E+01 1.00000E+01 2.50000E+00
 -1        82 1.00000E+01 1.00000E+01 4.16667E+00
 -1        83 1.00000E+01 1.00000E+01 5.83333E+00
 -1        84 1.00000E+01 1.00000E+01 7.50000E+00
 -1        85 1.00000E+01 1.00000E+01 9.16667E+00
 -1        86 1.00000E+01 1.66667E+00 0.00000E+00
 -1        87 1.00000E+01 3.33333E+00 0.00000E+00
 -1        88 1.00000E+01 5.00000E+00 0.00000E+00
 -1        89 1.00000E+01 6.66667E+00 0.00000E+00
 -1        90 1.00000E+01 8.33333E+00 0.00000E+00
 -1        91 1.00000E+01 8.33333E-01 0.00000E+00
 -1        92 1.00000E+01 2.50000E+00 0.00000E+00
 -1        93 1.00000E+01 4.16667E+00 0.00000E+00
 -1        94 1.00000E+01 5.83333E+00 0.00000E+00
 -1        95 1.00000E+01 7.50000E+00 0.00000E+00
 -1        96 1.00000E+01 9.16667E+00 0.00000E+00
 -1        97 1.66667E+00 0.00000E+00 0.00000E+00
 -1        98 3.33333E+00 0.00000E+00 0.00000E+00
 -1        99 5.00000E+00 0.00000E+00 0.00000E+00
 -1       100 6.66667E+00 0.00000E+00 0.00000E+00
 -1       101 8.33333E+00 0.00000E+00 0.00000E+00
 -1       102 8.33333E-01 0.00000E+00 0.00000E+00
 -1       103 2.50000E+00 0.00000E+00 0.00000E+00
 -1       104 4.16667E+00 0.00000E+00 0.00000E+00
 -1       105 5.83333E+00 0.00000E+00 0.00000E+00
 -1       106 7.50000E+00 0.00000E+00 0.00000E+00
 -1       107 9.16667E+00 0.00000E+00 0.00000E+00
 -1       108 1.66667E+00 0.00000E+00 1.00000E+01
 -1       109 3.33333E+00 0.00000E+00 1.00000E+01
 -1       110 5.00000E+00 0.00000E+00 1.00000E+01
 -1       111 6.66667E+00 0.00000E+00 1.00000E+01
 -1       112 8.33333E+00 0.00000E+00 1.00000E+01
 -1       113 8.33333E-01 0.00000E+00 1.00000E+01
 -1       114 2.50000E+00 0.00000E+00 1.00000E+01
 -1       115 4.16667E+00 0.00000E+00 1.00000E+01
 -1       116 5.83333E+00 0.00000E+00 1.00000E+01
 -1       117 7.50000E+00 0.00000E+00 1.00000E+01
 -1       118 9.16667E+00 0.00000E+00 1.00000E+01
 -1       119 1.66667E+00 1.00000E+01 0.00000E+00
 -1       120 3.33333E+00 1.00000E+01 0.00000E+00
 -1       121 5.00000E+00 1.00000E+01 0.00000E+00
 -1       122 6.66667E+00 1.00000E+01 0.00000E+00
 -1       123 8.33333E+00 1.00000E+01 0.00000E+00
 -1       124 8.33333E-01 1.00000E+01 0.00000E+00
 -1       125 2.50000E+00 1.00000E+01 0.00000E+00
 -1       126 4.16667E+00 1.00000E+01 0.00000E+00
 -1       127 5.83333E+00 1.00000E+01 0.00000E+00
 -1       128 7.50000E+00 1.00000E+01 0.00000E+00
 -1       129 9.16667E+00 1.00000E+01 0.00000E+00
 -1       130 1.66667E+00 1.00000E+01 1.00000E+01
 -1       131 3.33333E+00 1.00000E+01 1.00000E+01
 -1       132 5.00000E+00 1.00000E+01 1.00000E+01
 -1       133 6.66667E+00 1.00000E+01 1.00000E+01
 -1       134 8.33333E+00 1.00000E+01 1.00000E+01
 -1       135 8.33333E-01 1.00000E+01 1.00000E+01
 -1       136 2.50000E+00 1.00000E+01 1.00000E+01
 -1       137 4.16667E+00 1.00000E+01 1.00000E+01
 -1       138 5.83333E+00 1.00000E+01 1.00000E+01
 -1       139 7.50000E+00 1.00000E+01 1.00000E+01
 -1       140 9.16667E+00 1.00000E+01 1.00000E+01
 -1       141 0.00000E+00 4.98880E+00 5.05507E+00
 -1       142 0.00000E+00 7.29089E+00 2.67113E+00
 -1       143 0.00000E+00 2.67113E+00 2.70911E+00
 -1       144 0.00000E+00 2.68206E+00 7.34678E+00
 -1       145 0.00000E+00 7.34678E+00 7.31794E+00
 -1       146 0.00000E+00 2.12873E+00 5.00858E+00
 -1       147 0.00000E+00 4.99142E+00 2.12873E+00
 -1       148 0.00000E+00 7.79762E+00 5.00000E+00
 -1       149 0.00000E+00 5.00000E+00 7.79762E+00
 -1       150 0.00000E+00 8.29167E+00 8.29167E+00
 -1       151 0.00000E+00 8.35637E+00 1.64198E+00
 -1       152 0.00000E+00 1.70833E+00 8.29167E+00
 -1       153 0.00000E+00 1.64198E+00 1.64363E+00
 -1       154 0.00000E+00 6.55389E+00 4.29217E+00
 -1       155 0.00000E+00 3.14018E+00 5.84469E+00
 -1       156 0.00000E+00 4.27152E+00 3.45496E+00
 -1       157 0.00000E+00 5.78803E+00 6.88410E+00
 -1       158 0.00000E+00 6.34531E+00 8.48366E+00
 -1       159 0.00000E+00 8.47320E+00 6.39574E+00
 -1       160 0.00000E+00 1.52680E+00 6.39574E+00
 -1       161 0.00000E+00 6.39574E+00 1.52680E+00
 -1       162 0.00000E+00 1.52680E+00 3.60426E+00
 -1       163 0.00000E+00 3.65768E+00 1.52903E+00
 -1       164 0.00000E+00 8.46816E+00 3.65894E+00
 -1       165 0.00000E+00 3.60426E+00 8.47320E+00
 -1       166 0.00000E+00 3.18562E+00 4.32336E+00
 -1       167 0.00000E+00 4.20055E+00 6.90024E+00
 -1       168 0.00000E+00 6.82472E+00 5.82417E+00
 -1       169 0.00000E+00 5.65964E+00 3.26579E+00
 -1       170 0.00000E+00 2.58945E+00 9.08057E+00
 -1       171 0.00000E+00 9.08057E+00 2.58945E+00
 -1       172 0.00000E+00 9.84134E-01 2.58996E+00
 -1       173 0.00000E+00 2.58945E+00 9.19435E-01
 -1       174 0.00000E+00 7.41004E+00 9.84134E-01
 -1       175 0.00000E+00 9.88157E-01 7.40958E+00
 -1       176 0.00000E+00 7.41055E+00 9.08057E+00
 -1       177 0.00000E+00 9.08057E+00 7.41055E+00
 -1       178 0.00000E+00 8.58570E-01 9.14143E+00
 -1       179 0.00000E+00 9.17243E+00 8.27163E-01
 -1       180 0.00000E+00 9.13387E+00 9.13387E+00
 -1       181 0.00000E+00 8.27163E-01 8.27575E-01
 -1       182 0.00000E+00 4.29285E-01 8.73738E+00
 -1       183 0.00000E+00 4.29285E-01 9.57071E+00
 -1       184 0.00000E+00 1.26262E+00 9.57071E+00
 -1       185 0.00000E+00 4.13581E-01 1.24712E+00
 -1       186 0.00000E+00 4.13581E-01 4.13787E-01
 -1       187 0.00000E+00 1.24691E+00 4.13787E-01
 -1       188 0.00000E+00 8.73360E+00 9.56693E+00
 -1       189 0.00000E+00 9.56693E+00 9.56693E+00
 -1       190 0.00000E+00 9.56693E+00 8.73360E+00
 -1       191 0.00000E+00 9.58621E+00 1.24691E+00
 -1       192 0.00000E+00 9.58621E+00 4.13581E-01
 -1       193 0.00000E+00 8.75288E+00 4.13581E-01
 -1       194 0.00000E+00 4.92067E-01 2.96164E+00
 -1       195 0.00000E+00 4.92067E-01 2.12831E+00
 -1       196 0.00000E+00 1.31306E+00 2.11679E+00
 -1       197 0.00000E+00 8.20992E-01 1.65515E+00
 -1       198 0.00000E+00 1.23457E+00 1.23560E+00
 -1       199 0.00000E+00 7.63399E-01 4.30213E+00
 -1       200 0.00000E+00 7.63399E-01 3.46879E+00
 -1       201 0.00000E+00 1.25547E+00 3.09711E+00
 -1       202 0.00000E+00 7.63399E-01 6.53121E+00
 -1       203 0.00000E+00 7.63399E-01 5.69787E+00
 -1       204 0.00000E+00 1.82777E+00 5.70216E+00
 -1       205 0.00000E+00 1.06437E+00 5.00429E+00
 -1       206 0.00000E+00 1.82777E+00 4.30642E+00
 -1       207 0.00000E+00 4.94079E-01 7.87146E+00
 -1       208 0.00000E+00 4.94079E-01 7.03813E+00
 -1       209 0.00000E+00 1.25748E+00 6.90266E+00
 -1       210 0.00000E+00 1.34825E+00 7.85063E+00
 -1       211 0.00000E+00 8.54167E-01 8.31250E+00
 -1       212 0.00000E+00 1.28345E+00 8.71655E+00
 -1       213 0.00000E+00 2.96139E+00 9.54028E+00
 -1       214 0.00000E+00 2.12806E+00 9.54028E+00
 -1       215 0.00000E+00 2.14889E+00 8.68612E+00
 -1       216 0.00000E+00 1.68750E+00 9.14583E+00
 -1       217 0.00000E+00 4.30213E+00 9.23660E+00
 -1       218 0.00000E+00 3.46879E+00 9.23660E+00
 -1       219 0.00000E+00 3.09685E+00 8.77688E+00
 -1       220 0.00000E+00 6.50599E+00 9.24183E+00
 -1       221 0.00000E+00 5.67266E+00 9.24183E+00
 -1       222 0.00000E+00 5.67266E+00 8.14064E+00
 -1       223 0.00000E+00 5.00000E+00 8.89881E+00
 -1       224 0.00000E+00 4.30213E+00 8.13541E+00
 -1       225 0.00000E+00 7.87194E+00 9.54028E+00
 -1       226 0.00000E+00 7.03861E+00 9.54028E+00
 -1       227 0.00000E+00 6.87793E+00 8.78211E+00
 -1       228 0.00000E+00 7.85111E+00 8.68612E+00
 -1       229 0.00000E+00 8.31250E+00 9.14583E+00
 -1       230 0.00000E+00 8.71277E+00 8.71277E+00
 -1       231 0.00000E+00 9.54028E+00 2.96139E+00
 -1       232 0.00000E+00 9.54028E+00 2.12806E+00
 -1       233 0.00000E+00 8.71847E+00 2.11572E+00
 -1       234 0.00000E+00 9.17818E+00 1.65433E+00
 -1       235 0.00000E+00 8.76440E+00 1.23457E+00
 -1       236 0.00000E+00 9.23408E+00 4.32947E+00
 -1       237 0.00000E+00 9.23408E+00 3.49614E+00
 -1       238 0.00000E+00 8.77436E+00 3.12420E+00
 -1       239 0.00000E+00 9.23660E+00 6.53121E+00
 -1       240 0.00000E+00 9.23660E+00 5.69787E+00
 -1       241 0.00000E+00 8.13541E+00 5.69787E+00
 -1       242 0.00000E+00 8.89881E+00 5.00000E+00
 -1       243 0.00000E+00 8.13289E+00 4.32947E+00
 -1       244 0.00000E+00 9.54028E+00 7.87194E+00
 -1       245 0.00000E+00 9.54028E+00 7.03861E+00
 -1       246 0.00000E+00 8.77688E+00 6.90315E+00
 -1       247 0.00000E+00 8.68612E+00 7.85111E+00
 -1       248 0.00000E+00 9.14583E+00 8.31250E+00
 -1       249 0.00000E+00 2.96139E+00 4.59717E-01
 -1       250 0.00000E+00 2.12806E+00 4.59717E-01
 -1       251 0.00000E+00 2.11572E+00 1.28153E+00
 -1       252 0.00000E+00 1.65433E+00 8.21816E-01
 -1       253 0.00000E+00 4.32884E+00 7.64515E-01
 -1       254 0.00000E+00 3.49550E+00 7.64515E-01
 -1       255 0.00000E+00 3.12356E+00 1.22423E+00
 -1       256 0.00000E+00 6.53121E+00 7.63399E-01
 -1       257 0.00000E+00 5.69787E+00 7.63399E-01
 -1       258 0.00000E+00 5.69358E+00 1.82777E+00
 -1       259 0.00000E+00 4.99571E+00 1.06437E+00
 -1       260 0.00000E+00 4.32455E+00 1.82888E+00
 -1       261 0.00000E+00 7.87169E+00 4.92067E-01
 -1       262 0.00000E+00 7.03836E+00 4.92067E-01
 -1       263 0.00000E+00 6.90289E+00 1.25547E+00
 -1       264 0.00000E+00 7.88321E+00 1.31306E+00
 -1       265 0.00000E+00 8.34485E+00 8.20992E-01
 -1       266 0.00000E+00 6.68931E+00 5.05817E+00
 -1       267 0.00000E+00 5.77135E+00 4.67362E+00
 -1       268 0.00000E+00 5.90676E+00 5.43962E+00
 -1       269 0.00000E+00 6.10677E+00 3.77898E+00
 -1       270 0.00000E+00 5.32422E+00 4.16043E+00
 -1       271 0.00000E+00 3.16290E+00 5.08402E+00
 -1       272 0.00000E+00 4.06449E+00 5.44988E+00
 -1       273 0.00000E+00 4.08721E+00 4.68922E+00
 -1       274 0.00000E+00 3.67037E+00 6.37247E+00
 -1       275 0.00000E+00 4.59468E+00 5.97766E+00
 -1       276 0.00000E+00 3.72857E+00 3.88916E+00
 -1       277 0.00000E+00 4.63016E+00 4.25501E+00
 -1       278 0.00000E+00 4.96558E+00 3.36037E+00
 -1       279 0.00000E+00 4.99429E+00 6.89217E+00
 -1       280 0.00000E+00 5.38841E+00 5.96959E+00
 -1       281 0.00000E+00 6.30638E+00 6.35414E+00
 -1       282 0.00000E+00 7.82363E+00 2.15656E+00
 -1       283 0.00000E+00 8.18573E+00 2.63029E+00
 -1       284 0.00000E+00 7.35047E+00 1.82763E+00
 -1       285 0.00000E+00 7.51103E+00 3.97556E+00
 -1       286 0.00000E+00 7.87952E+00 3.16504E+00
 -1       287 0.00000E+00 6.92239E+00 3.48165E+00
 -1       288 0.00000E+00 6.47526E+00 2.96846E+00
 -1       289 0.00000E+00 6.02769E+00 2.39629E+00
 -1       290 0.00000E+00 6.84332E+00 2.09896E+00
 -1       291 0.00000E+00 2.15656E+00 2.17637E+00
 -1       292 0.00000E+00 1.82763E+00 2.64953E+00
 -1       293 0.00000E+00 2.63029E+00 1.81427E+00
 -1       294 0.00000E+00 3.96460E+00 2.49199E+00
 -1       295 0.00000E+00 3.16440E+00 2.11907E+00
 -1       296 0.00000E+00 3.47132E+00 3.08203E+00
 -1       297 0.00000E+00 2.92837E+00 3.51623E+00
 -1       298 0.00000E+00 2.35621E+00 3.96381E+00
 -1       299 0.00000E+00 2.09896E+00 3.15668E+00
 -1       300 0.00000E+00 2.19520E+00 7.81922E+00
 -1       301 0.00000E+00 2.63575E+00 8.21367E+00
 -1       302 0.00000E+00 1.83511E+00 7.37818E+00
 -1       303 0.00000E+00 2.33349E+00 6.12022E+00
 -1       304 0.00000E+00 2.10443E+00 6.87126E+00
 -1       305 0.00000E+00 2.91112E+00 6.59573E+00
 -1       306 0.00000E+00 3.44131E+00 7.12351E+00
 -1       307 0.00000E+00 3.90241E+00 7.68672E+00
 -1       308 0.00000E+00 3.14316E+00 7.90999E+00
 -1       309 0.00000E+00 7.81922E+00 7.80480E+00
 -1       310 0.00000E+00 7.37866E+00 8.19925E+00
 -1       311 0.00000E+00 8.21367E+00 7.36425E+00
 -1       312 0.00000E+00 6.06667E+00 7.68388E+00
 -1       313 0.00000E+00 6.84604E+00 7.90080E+00
 -1       314 0.00000E+00 6.56740E+00 7.10102E+00
 -1       315 0.00000E+00 7.08575E+00 6.57106E+00
 -1       316 0.00000E+00 7.64896E+00 6.10996E+00
 -1       317 0.00000E+00 7.90999E+00 6.85684E+00
 -1       318 0.00000E+00 2.63446E+00 5.42663E+00
 -1       319 0.00000E+00 2.65718E+00 4.66597E+00
 -1       320 0.00000E+00 4.63147E+00 2.79184E+00
 -1       321 0.00000E+00 5.32553E+00 2.69726E+00
 -1       322 0.00000E+00 7.17576E+00 4.64608E+00
 -1       323 0.00000E+00 7.31117E+00 5.41209E+00
 -1       324 0.00000E+00 5.39401E+00 7.34086E+00
 -1       325 0.00000E+00 4.60028E+00 7.34893E+00
 -1       326 1.00000E+01 4.98880E+00 5.05507E+00
 -1       327 1.00000E+01 7.29089E+00 2.67113E+00
 -1       328 1.00000E+01 2.67113E+00 2.70911E+00
 -1       329 1.00000E+01 2.68206E+00 7.34678E+00
 -1       330 1.00000E+01 7.34678E+00 7.31794E+00
 -1       331 1.00000E+01 2.12873E+00 5.00858E+00
 -1       332 1.00000E+01 4.99142E+00 2.12873E+00
 -1       333 1.00000E+01 7.79762E+00 5.00000E+00
 -1       334 1.00000E+01 5.00000E+00 7.79762E+00
 -1       335 1.00000E+01 8.29167E+00 8.29167E+00
 -1       336 1.00000E+01 8.35637E+00 1.64198E+00
 -1       337 1.00000E+01 1.70833E+00 8.29167E+00
 -1       338 1.00000E+01 1.64198E+00 1.64363E+00
 -1       339 1.00000E+01 6.55389E+00 4.29217E+00
 -1       340 1.00000E+01 3.14018E+00 5.84469E+00
 -1       341 1.00000E+01 4.27152E+00 3.45496E+00
 -1       342 1.00000E+01 5.78803E+00 6.88410E+00
 -1       343 1.00000E+01 6.34531E+00 8.48366E+00
 -1       344 1.00000E+01 8.47320E+00 6.39574E+00
 -1       345 1.00000E+01 1.52680E+00 6.39574E+00
 -1       346 1.00000E+01 6.39574E+00 1.52680E+00
 -1       347 1.00000E+01 1.52680E+00 3.60426E+00
 -1       348 1.00000E+01 3.65768E+00 1.52903E+00
 -1       349 1.00000E+01 8.46816E+00 3.65894E+00
 -1       350 1.00000E+01 3.60426E+00 8.47320E+00
 -1       351 1.00000E+01 3.18562E+00 4.32336E+00
 -1       352 1.00000E+01 4.20055E+00 6.90024E+00
 -1       353 1.00000E+01 6.82472E+00 5.82417E+00
 -1       354 1.00000E+01 5.65964E+00 3.26579E+00
 -1       355 1.00000E+01 2.58945E+00 9.08057E+00
 -1       356 1.00000E+01 9.08057E+00 2.58945E+00
 -1       357 1.00000E+01 9.84134E-01 2.58996E+00
 -1       358 1.00000E+01 2.58945E+00 9.19435E-01
 -1       359 1.00000E+01 7.41004E+00 9.84134E-01
 -1       360 1.00000E+01 9.88157E-01 7.40958E+00
 -1       361 1.00000E+01 7.41055E+00 9.08057E+00
 -1       362 1.00000E+01 9.08057E+00 7.41055E+00
 -1       363 1.00000E+01 8.58570E-01 9.14143E+00
 -1       364 1.00000E+01 9.17243E+00 8.27163E-01
 -1       365 1.00000E+01 9.13387E+00 9.13387E+00
 -1       366 1.00000E+01 8.27163E-01 8.27575E-01
 -1       367 1.00000E+01 4.29285E-01 8.73738E+00
 -1       368 1.00000E+01 4.29285E-01 9.57071E+00
 -1       369 1.00000E+01 1.26262E+00 9.57071E+00
 -1       370 1.00000E+01 4.13581E-01 4.13787E-01
 -1       371 1.00000E+01 4.13581E-01 1.24712E+00
 -1       372 1.00000E+01 1.24691E+00 4.13787E-01
 -1       373 1.00000E+01 8.73360E+00 9.56693E+00
 -1       374 1.00000E+01 9.56693E+00 9.56693E+00
 -1       375 1.00000E+01 9.56693E+00 8.73360E+00
 -1       376 1.00000E+01 9.58621E+00 1.24691E+00
 -1       377 1.00000E+01 9.58621E+00 4.13581E-01
 -1       378 1.00000E+01 8.75288E+00 4.13581E-01
 -1       379 1.00000E+01 4.92067E-01 2.12831E+00
 -1       380 1.00000E+01 4.92067E-01 2.96164E+00
 -1       381 1.00000E+01 8.20992E-01 1.65515E+00
 -1       382 1.00000E+01 1.31306E+00 2.11679E+00
 -1       383 1.00000E+01 1.23457E+00 1.23560E+00
 -1       384 1.00000E+01 7.63399E-01 3.46879E+00
 -1       385 1.00000E+01 7.63399E-01 4.30213E+00
 -1       386 1.00000E+01 1.25547E+00 3.09711E+00
 -1       387 1.00000E+01 7.63399E-01 5.69787E+00
 -1       388 1.00000E+01 7.63399E-01 6.53121E+00
 -1       389 1.00000E+01 1.06437E+00 5.00429E+00
 -1       390 1.00000E+01 1.82777E+00 5.70216E+00
 -1       391 1.00000E+01 1.82777E+00 4.30642E+00
 -1       392 1.00000E+01 4.94079E-01 7.03813E+00
 -1       393 1.00000E+01 4.94079E-01 7.87146E+00
 -1       394 1.00000E+01 1.25748E+00 6.90266E+00
 -1       395 1.00000E+01 1.34825E+00 7.85063E+00
 -1       396 1.00000E+01 8.54167E-01 8.31250E+00
 -1       397 1.00000E+01 1.28345E+00 8.71655E+00
 -1       398 1.00000E+01 2.12806E+00 9.54028E+00
 -1       399 1.00000E+01 2.96139E+00 9.54028E+00
 -1       400 1.00000E+01 1.68750E+00 9.14583E+00
 -1       401 1.00000E+01 2.14889E+00 8.68612E+00
 -1       402 1.00000E+01 3.46879E+00 9.23660E+00
 -1       403 1.00000E+01 4.30213E+00 9.23660E+00
 -1       404 1.00000E+01 3.09685E+00 8.77688E+00
 -1       405 1.00000E+01 5.67266E+00 9.24183E+00
 -1       406 1.00000E+01 6.50599E+00 9.24183E+00
 -1       407 1.00000E+01 5.00000E+00 8.89881E+00
 -1       408 1.00000E+01 5.67266E+00 8.14064E+00
 -1       409 1.00000E+01 4.30213E+00 8.13541E+00
 -1       410 1.00000E+01 7.03861E+00 9.54028E+00
 -1       411 1.00000E+01 7.87194E+00 9.54028E+00
 -1       412 1.00000E+01 6.87793E+00 8.78211E+00
 -1       413 1.00000E+01 7.85111E+00 8.68612E+00
 -1       414 1.00000E+01 8.31250E+00 9.14583E+00
 -1       415 1.00000E+01 8.71277E+00 8.71277E+00
 -1       416 1.00000E+01 9.54028E+00 2.96139E+00
 -1       417 1.00000E+01 9.54028E+00 2.12806E+00
 -1       418 1.00000E+01 8.71847E+00 2.11572E+00
 -1       419 1.00000E+01 9.17818E+00 1.65433E+00
 -1       420 1.00000E+01 8.76440E+00 1.23457E+00
 -1       421 1.00000E+01 9.23408E+00 4.32947E+00
 -1       422 1.00000E+01 9.23408E+00 3.49614E+00
 -1       423 1.00000E+01 8.77436E+00 3.12420E+00
 -1       424 1.00000E+01 9.23660E+00 6.53121E+00
 -1       425 1.00000E+01 9.23660E+00 5.69787E+00
 -1       426 1.00000E+01 8.13541E+00 5.69787E+00
 -1       427 1.00000E+01 8.89881E+00 5.00000E+00
 -1       428 1.00000E+01 8.13289E+00 4.32947E+00
 -1       429 1.00000E+01 9.54028E+00 7.87194E+00
 -1       430 1.00000E+01 9.54028E+00 7.03861E+00
 -1       431 1.00000E+01 8.77688E+00 6.90315E+00
 -1       432 1.00000E+01 9.14583E+00 8.31250E+00
 -1       433 1.00000E+01 8.68612E+00 7.85111E+00
 -1       434 1.00000E+01 2.96139E+00 4.59717E-01
 -1       435 1.00000E+01 2.12806E+00 4.59717E-01
 -1       436 1.00000E+01 2.11572E+00 1.28153E+00
 -1       437 1.00000E+01 1.65433E+00 8.21816E-01
 -1       438 1.00000E+01 4.32884E+00 7.64515E-01
 -1       439 1.00000E+01 3.49550E+00 7.64515E-01
 -1       440 1.00000E+01 3.12356E+00 1.22423E+00
 -1       441 1.00000E+01 6.53121E+00 7.63399E-01
 -1       442 1.00000E+01 5.69787E+00 7.63399E-01
 -1       443 1.00000E+01 5.69358E+00 1.82777E+00
 -1       444 1.00000E+01 4.99571E+00 1.06437E+00
 -1       445 1.00000E+01 4.32455E+00 1.82888E+00
 -1       446 1.00000E+01 7.87169E+00 4.92067E-01
 -1       447 1.00000E+01 7.03836E+00 4.92067E-01
 -1       448 1.00000E+01 6.90289E+00 1.25547E+00
 -1       449 1.00000E+01 8.34485E+00 8.20992E-01
 -1       450 1.00000E+01 7.88321E+00 1.31306E+00
 -1       451 1.00000E+01 5.77135E+00 4.67362E+00
 -1       452 1.00000E+01 6.68931E+00 5.05817E+00
 -1       453 1.00000E+01 5.90676E+00 5.43962E+00
 -1       454 1.00000E+01 5.32422E+00 4.16043E+00
 -1       455 1.00000E+01 6.10677E+00 3.77898E+00
 -1       456 1.00000E+01 4.06449E+00 5.44988E+00
 -1       457 1.00000E+01 3.16290E+00 5.08402E+00
 -1       458 1.00000E+01 4.08721E+00 4.68922E+00
 -1       459 1.00000E+01 4.59468E+00 5.97766E+00
 -1       460 1.00000E+01 3.67037E+00 6.37247E+00
 -1       461 1.00000E+01 3.72857E+00 3.88916E+00
 -1       462 1.00000E+01 4.63016E+00 4.25501E+00
 -1       463 1.00000E+01 4.96558E+00 3.36037E+00
 -1       464 1.00000E+01 5.38841E+00 5.96959E+00
 -1       465 1.00000E+01 4.99429E+00 6.89217E+00
 -1       466 1.00000E+01 6.30638E+00 6.35414E+00
 -1       467 1.00000E+01 8.18573E+00 2.63029E+00
 -1       468 1.00000E+01 7.82363E+00 2.15656E+00
 -1       469 1.00000E+01 7.35047E+00 1.82763E+00
 -1       470 1.00000E+01 7.87952E+00 3.16504E+00
 -1       471 1.00000E+01 7.51103E+00 3.97556E+00
 -1       472 1.00000E+01 6.92239E+00 3.48165E+00
 -1       473 1.00000E+01 6.47526E+00 2.96846E+00
 -1       474 1.00000E+01 6.02769E+00 2.39629E+00
 -1       475 1.00000E+01 6.84332E+00 2.09896E+00
 -1       476 1.00000E+01 2.15656E+00 2.17637E+00
 -1       477 1.00000E+01 1.82763E+00 2.64953E+00
 -1       478 1.00000E+01 2.63029E+00 1.81427E+00
 -1       479 1.00000E+01 3.16440E+00 2.11907E+00
 -1       480 1.00000E+01 3.96460E+00 2.49199E+00
 -1       481 1.00000E+01 3.47132E+00 3.08203E+00
 -1       482 1.00000E+01 2.92837E+00 3.51623E+00
 -1       483 1.00000E+01 2.35621E+00 3.96381E+00
 -1       484 1.00000E+01 2.09896E+00 3.15668E+00
 -1       485 1.00000E+01 2.19520E+00 7.81922E+00
 -1       486 1.00000E+01 2.63575E+00 8.21367E+00
 -1       487 1.00000E+01 1.83511E+00 7.37818E+00
 -1       488 1.00000E+01 2.10443E+00 6.87126E+00
 -1       489 1.00000E+01 2.33349E+00 6.12022E+00
 -1       490 1.00000E+01 2.91112E+00 6.59573E+00
 -1       491 1.00000E+01 3.44131E+00 7.12351E+00
 -1       492 1.00000E+01 3.90241E+00 7.68672E+00
 -1       493 1.00000E+01 3.14316E+00 7.90999E+00
 -1       494 1.00000E+01 7.37866E+00 8.19925E+00
 -1       495 1.00000E+01 7.81922E+00 7.80480E+00
 -1       496 1.00000E+01 8.21367E+00 7.36425E+00
 -1       497 1.00000E+01 6.84604E+00 7.90080E+00
 -1       498 1.00000E+01 6.06667E+00 7.68388E+00
 -1       499 1.00000E+01 6.56740E+00 7.10102E+00
 -1       500 1.00000E+01 7.08575E+00 6.57106E+00
 -1       501 1.00000E+01 7.64896E+00 6.10996E+00
 -1       502 1.00000E+01 7.90999E+00 6.85684E+00
 -1       503 1.00000E+01 2.63446E+00 5.42663E+00
 -1       504 1.00000E+01 2.65718E+00 4.66597E+00
 -1       505 1.00000E+01 4.63147E+00 2.79184E+00
 -1       506 1.00000E+01 5.32553E+00 2.69726E+00
 -1       507 1.00000E+01 7.17576E+00 4.64608E+00
 -1       508 1.00000E+01 7.31117E+00 5.41209E+00
 -1       509 1.00000E+01 5.39401E+00 7.34086E+00
 -1       510 1.00000E+01 4.60028E+00 7.34893E+00
 -1       511 4.98880E+00 0.00000E+00 5.05507E+00
 -1       512 7.29089E+00 0.00000E+00 2.67113E+00
 -1       513 2.67113E+00 0.00000E+00 2.70911E+00
 -1       514 2.68206E+00 0.00000E+00 7.34678E+00
 -1       515 7.34678E+00 0.00000E+00 7.31794E+00
 -1       516 2.12873E+00 0.00000E+00 5.00858E+00
 -1       517 4.99142E+00 0.00000E+00 2.12873E+00
 -1       518 7.79762E+00 0.00000E+00 5.00000E+00
 -1       519 5.00000E+00 0.00000E+00 7.79762E+00
 -1       520 8.29167E+00 0.00000E+00 8.29167E+00
 -1       521 8.35637E+00 0.00000E+00 1.64198E+00
 -1       522 1.70833E+00 0.00000E+00 8.29167E+00
 -1       523 1.64198E+00 0.00000E+00 1.64363E+00
 -1       524 6.55389E+00 0.00000E+00 4.29217E+00
 -1       525 3.14018E+00 0.00000E+00 5.84469E+00
 -1       526 4.27152E+00 0.00000E+00 3.45496E+00
 -1       527 5.78803E+00 0.00000E+00 6.88410E+00
 -1       528 8.47320E+00 0.00000E+00 6.39574E+00
 -1       529 6.34531E+00 0.00000E+00 8.48366E+00
 -1       530 1.52680E+00 0.00000E+00 6.39574E+00
 -1       531 6.39574E+00 0.00000E+00 1.52680E+00
 -1       532 1.52680E+00 0.00000E+00 3.60426E+00
 -1       533 3.65768E+00 0.00000E+00 1.52903E+00
 -1       534 8.46816E+00 0.00000E+00 3.65894E+00
 -1       535 3.60426E+00 0.00000E+00 8.47320E+00
 -1       536 3.18562E+00 0.00000E+00 4.32336E+00
 -1       537 4.20055E+00 0.00000E+00 6.90024E+00
 -1       538 6.82472E+00 0.00000E+00 5.82417E+00
 -1       539 5.65964E+00 0.00000E+00 3.26579E+00
 -1       540 2.58945E+00 0.00000E+00 9.08057E+00
 -1       541 9.08057E+00 0.00000E+00 2.58945E+00
 -1       542 9.84134E-01 0.00000E+00 2.58996E+00
 -1       543 2.58945E+00 0.00000E+00 9.19435E-01
 -1       544 7.41004E+00 0.00000E+00 9.84134E-01
 -1       545 9.88157E-01 0.00000E+00 7.40958E+00
 -1       546 9.08057E+00 0.00000E+00 7.41055E+00
 -1       547 7.41055E+00 0.00000E+00 9.08057E+00
 -1       548 8.58570E-01 0.00000E+00 9.14143E+00
 -1       549 9.17243E+00 0.00000E+00 8.27163E-01
 -1       550 9.13387E+00 0.00000E+00 9.13387E+00
 -1       551 8.27163E-01 0.00000E+00 8.27575E-01
 -1       552 4.29285E-01 0.00000E+00 8.73738E+00
 -1       553 4.29285E-01 0.00000E+00 9.57071E+00
 -1       554 1.26262E+00 0.00000E+00 9.57071E+00
 -1       555 4.13581E-01 0.00000E+00 4.13787E-01
 -1       556 4.13581E-01 0.00000E+00 1.24712E+00
 -1       557 1.24691E+00 0.00000E+00 4.13787E-01
 -1       558 9.56693E+00 0.00000E+00 9.56693E+00
 -1       559 9.56693E+00 0.00000E+00 8.73360E+00
 -1       560 8.73360E+00 0.00000E+00 9.56693E+00
 -1       561 9.58621E+00 0.00000E+00 1.24691E+00
 -1       562 9.58621E+00 0.00000E+00 4.13581E-01
 -1       563 8.75288E+00 0.00000E+00 4.13581E-01
 -1       564 4.92067E-01 0.00000E+00 2.12831E+00
 -1       565 4.92067E-01 0.00000E+00 2.96164E+00
 -1       566 8.20992E-01 0.00000E+00 1.65515E+00
 -1       567 1.31306E+00 0.00000E+00 2.11679E+00
 -1       568 1.23457E+00 0.00000E+00 1.23560E+00
 -1       569 7.63399E-01 0.00000E+00 3.46879E+00
 -1       570 7.63399E-01 0.00000E+00 4.30213E+00
 -1       571 1.25547E+00 0.00000E+00 3.09711E+00
 -1       572 7.63399E-01 0.00000E+00 5.69787E+00
 -1       573 7.63399E-01 0.00000E+00 6.53121E+00
 -1       574 1.06437E+00 0.00000E+00 5.00429E+00
 -1       575 1.82777E+00 0.00000E+00 5.70216E+00
 -1       576 1.82777E+00 0.00000E+00 4.30642E+00
 -1       577 4.94079E-01 0.00000E+00 7.03813E+00
 -1       578 4.94079E-01 0.00000E+00 7.87146E+00
 -1       579 1.25748E+00 0.00000E+00 6.90266E+00
 -1       580 1.34825E+00 0.00000E+00 7.85063E+00
 -1       581 8.54167E-01 0.00000E+00 8.31250E+00
 -1       582 1.28345E+00 0.00000E+00 8.71655E+00
 -1       583 9.54028E+00 0.00000E+00 2.96139E+00
 -1       584 9.54028E+00 0.00000E+00 2.12806E+00
 -1       585 8.71847E+00 0.00000E+00 2.11572E+00
 -1       586 9.17818E+00 0.00000E+00 1.65433E+00